30
 energy: -42.939126637154 gnorm: 0.000441581597 xtb: 6.2.3 (830e466)
C        -3.42740194847362   -1.28071053274827    0.43066854777649
S        -1.79664871388480   -0.63776431812180   -0.06982410722606
C        -2.08272329819066    1.14787653776455    0.38820448070067
C        -0.68888578570555   -1.62515638351583    0.68530303808233
H         0.28377600344422   -1.53638467910517    0.23133284313366
H        -0.69346555524483   -1.45007153519157    1.75039621407257
O        -1.70728079971581   -0.67293173527398   -1.50912842448609
C         3.48691065081586   -1.23424718896541    1.05080489478440
C         3.13032830987797   -1.22741127854944   -0.41706910635992
O         3.51525328542886   -2.09464634910399   -1.16802161726591
C         2.27660374567673   -0.10888155908099   -0.89722823363125
C         2.08827236961860    1.06862882836070   -0.17541630722961
C         1.29170316370728    2.07518791703168   -0.68911734101042
C         0.66295631698543    1.91553494519605   -1.91498702085508
C         0.83763081621577    0.74582591089079   -2.63529325977169
C         1.64576229971333   -0.25461049158368   -2.13311223494091
H        -3.52004486945103   -1.20058764243200    1.50645212835386
H        -3.46535265402058   -2.32097689574872    0.12981689575719
H        -4.20264363221603   -0.71380741327324   -0.07009256339779
H        -2.29061016568727    1.20863056054509    1.44875104596108
H        -2.91398581564918    1.51062867150846   -0.20051871465495
H        -1.17944265936455    1.69075988465767    0.13938829734842
H         3.97171071403727   -2.17570489627203    1.29605847433925
H         2.59515639643935   -1.11129363652663    1.66049999182113
H         4.17528541149338   -0.41865730605245    1.26436566970096
H         2.57254595272521    1.21260218095437    0.77832454150382
H         1.16326300370512    2.99282746837504   -0.13095655705107
H         0.03644198771627    2.70403598894000   -2.30628621442790
H         0.34114201127000    0.61389096955682   -3.58327860068859
H         1.79626144389412   -1.17325903601390   -2.67925940551660
